    1C
    1UPlane Stress - Rectangular Plate with Central Hole                
    1UUniaxial Tension - Stress Concentration Analysis                  
    1UWidth: W = 100 mm (x-direction)                                   
    1UHeight: H = 200 mm (y-direction)                                  
    1UHole diameter: D = 20 mm                                          
    1UThickness: t = 1 mm                                               
    1UUSER                                                              
    1UDATE              09.april.2026                                   
    1UTIME              01:32:05                                        
    1UHOST                                                              
    1UPGM               CalculiX                                        
    1UVERSION           Version 2.16                             
    1UCOMPILETIME       Mo 25. Nov 18:56:47 CET 2019                    
    1UDIR                                                               
    1UDBN                                                               
    1UMAT    1STEEL                                                     
    2C                            15                                     1
 -1         1 0.00000E+00 0.00000E+00 0.00000E+00
 -1         2 5.00000E+01 0.00000E+00 0.00000E+00
 -1         3 1.00000E+02 0.00000E+00 0.00000E+00
 -1         4 0.00000E+00 5.00000E+01 0.00000E+00
 -1         5 5.00000E+01 5.00000E+01 0.00000E+00
 -1         6 1.00000E+02 5.00000E+01 0.00000E+00
 -1         7 0.00000E+00 1.00000E+02 0.00000E+00
 -1         8 5.00000E+01 1.00000E+02 0.00000E+00
 -1         9 1.00000E+02 1.00000E+02 0.00000E+00
 -1        10 0.00000E+00 1.50000E+02 0.00000E+00
 -1        11 5.00000E+01 1.50000E+02 0.00000E+00
 -1        12 1.00000E+02 1.50000E+02 0.00000E+00
 -1        13 0.00000E+00 2.00000E+02 0.00000E+00
 -1        14 5.00000E+01 2.00000E+02 0.00000E+00
 -1        15 1.00000E+02 2.00000E+02 0.00000E+00
 -3
    3C                             8                                     1
 -1         1    9    0    1
 -2         1         2         5         4
 -1         2    9    0    1
 -2         2         3         6         5
 -1         3    9    0    1
 -2         4         5         8         7
 -1         4    9    0    1
 -2         5         6         9         8
 -1         5    9    0    1
 -2         7         8        11        10
 -1         6    9    0    1
 -2         8         9        12        11
 -1         7    9    0    1
 -2        10        11        14        13
 -1         8    9    0    1
 -2        11        12        15        14
 -3
    1PSTEP                         1           1           1          
  100CL  101 1.000000000          15                     0    1           1
 -4  DISP        4    1
 -5  D1          1    2    1    0
 -5  D2          1    2    2    0
 -5  D3          1    2    3    0
 -5  ALL         1    2    0    0    1ALL
 -1         1 5.00000E-01 0.00000E+00 0.00000E+00
 -1         2 5.00000E-01 0.00000E+00 0.00000E+00
 -1         3 5.00000E-01 0.00000E+00 0.00000E+00
 -1         4 5.00000E-01 2.54740E-15 0.00000E+00
 -1         5 5.00000E-01-9.24584E-17 0.00000E+00
 -1         6 5.00000E-01-2.72924E-15 0.00000E+00
 -1         7 5.00000E-01 4.87804E-15 0.00000E+00
 -1         8 5.00000E-01-1.46389E-16 0.00000E+00
 -1         9 5.00000E-01-5.16580E-15 0.00000E+00
 -1        10 5.00000E-01 6.63879E-15 0.00000E+00
 -1        11 5.00000E-01-1.87408E-16 0.00000E+00
 -1        12 5.00000E-01-7.01124E-15 0.00000E+00
 -1        13 5.00000E-01 7.34135E-15 0.00000E+00
 -1        14 5.00000E-01-2.14607E-16 0.00000E+00
 -1        15 5.00000E-01-7.77156E-15 0.00000E+00
 -3
    1PSTEP                         2           1           1          
  100CL  101 1.000000000          15                     0    1           1
 -4  STRESS      6    1
 -5  SXX         1    4    1    1
 -5  SYY         1    4    2    2
 -5  SZZ         1    4    3    3
 -5  SXY         1    4    1    2
 -5  SYZ         1    4    2    3
 -5  SZX         1    4    3    1
 -1         1 2.69861E-13 5.21631E-12-6.67061E-14 4.94915E-13-9.72224E-31 3.36269E-12
 -1         2-8.81248E-14-3.84352E-13 9.06028E-14 6.01242E-13-1.49407E-27-1.12090E-12
 -1         3-4.46110E-13-5.98502E-12 2.47912E-13 7.07568E-13-2.98716E-27-5.60449E-12
 -1         4 1.46949E-13 4.94946E-12-2.09552E-13 3.00195E-12-7.96641E-27 0.00000E+00
 -1         5-6.89745E-14-3.03423E-13 7.35081E-14 3.00421E-12-1.09523E-26-1.96157E-12
 -1         6-2.84898E-13-5.55630E-12 3.56568E-13 3.00646E-12-1.39383E-26-3.92314E-12
 -1         7 6.47949E-14 4.13336E-12-2.74461E-13 6.74320E-12-1.59299E-26 0.00000E+00
 -1         8-1.03955E-13-2.22596E-13 2.78688E-14 6.75508E-12-1.08271E-26-8.40674E-13
 -1         9-2.72704E-13-4.57856E-12 3.30199E-13 6.76696E-12-5.72421E-27-1.68135E-12
 -1        10 1.72945E-13 2.52778E-12-1.29835E-13 1.25070E-11-7.96495E-27 1.68135E-12
 -1        11-5.56524E-14-1.68279E-13-1.72288E-14 1.25526E-11 1.61772E-27 5.60449E-13
 -1        12-2.84249E-13-2.86434E-12 9.53774E-14 1.25981E-11 1.12004E-26-5.60449E-13
 -1        13 2.40338E-13 1.47142E-12-6.31451E-14 1.70366E-11-1.94445E-30 0.00000E+00
 -1        14 4.67803E-14-1.13860E-13-3.37818E-14 1.70021E-11 4.47892E-27 1.21528E-31
 -1        15-1.46777E-13-1.69914E-12-4.41856E-15 1.69677E-11 8.95978E-27 2.43056E-31
 -3
    1PSTEP                         3           1           1          
  100CL  101 1.000000000          15                     0    1           1
 -4  TOSTRAIN    6    1
 -5  EXX         1    4    1    1
 -5  EYY         1    4    2    2
 -5  EZZ         1    4    3    3
 -5  EXY         1    4    1    2
 -5  EYZ         1    4    2    3
 -5  EZX         1    4    3    1
 -1         1-6.07153E-18 2.45494E-17-8.15504E-18 3.06376E-18-6.01853E-36 2.08167E-17
 -1         2 0.00000E+00-1.83379E-18 1.10641E-18 3.72197E-18-9.24898E-33-6.93889E-18
 -1         3 6.07153E-18-2.82170E-17 1.03679E-17 4.38018E-18-1.84919E-32-3.46945E-17
 -1         4-6.07153E-18 2.36583E-17-8.27844E-18 1.85835E-17-4.93158E-32 0.00000E+00
 -1         5 0.00000E+00-1.45135E-18 8.82035E-19 1.85975E-17-6.78003E-32-1.21431E-17
 -1         6 6.07153E-18-2.65610E-17 1.00425E-17 1.86114E-17-8.62847E-32-2.42861E-17
 -1         7-5.20417E-18 1.99822E-17-7.30433E-18 4.17436E-17-9.86136E-32 0.00000E+00
 -1         8-2.16840E-19-9.51287E-19 5.99209E-19 4.18171E-17-6.70246E-32-5.20417E-18
 -1         9 4.77049E-18-2.18848E-17 8.50275E-18 4.18907E-17-3.54356E-32-1.04083E-17
 -1        10-2.60209E-18 1.19754E-17-4.47644E-18 7.74243E-17-4.93068E-32 1.04083E-17
 -1        11 0.00000E+00-6.97213E-19 2.37860E-19 7.77063E-17 1.00145E-32 3.46945E-18
 -1        12 2.60209E-18-1.33699E-17 4.95216E-18 7.79883E-17 6.93357E-32-3.46945E-18
 -1        13-8.67362E-19 6.75365E-18-2.74606E-18 1.05465E-16-1.20371E-35 0.00000E+00
 -1        14 4.33681E-19-5.60762E-19-6.50371E-20 1.05251E-16 2.77266E-32 7.52316E-37
 -1        15 1.73472E-18-7.87517E-18 2.61599E-18 1.05038E-16 5.54653E-32 1.50463E-36
 -3
    1PSTEP                         4           1           1          
  100CL  101 1.000000000          15                     0    1           1
 -4  ERROR       1    1
 -5  STR(%)      1    1    0    0
 -1         1 0.00000E+00
 -1         2 0.00000E+00
 -1         3 0.00000E+00
 -1         4 0.00000E+00
 -1         5 0.00000E+00
 -1         6 0.00000E+00
 -1         7 0.00000E+00
 -1         8 0.00000E+00
 -1         9 0.00000E+00
 -1        10 0.00000E+00
 -1        11 0.00000E+00
 -1        12 0.00000E+00
 -1        13 0.00000E+00
 -1        14 0.00000E+00
 -1        15 0.00000E+00
 -3
 9999
