    1C
    1UCantilever Beam - Fixed at one end, point load at free end        
    1USimple static analysis to verify FEA solver works                 
    1UUSER                                                              
    1UDATE              18.april.2026                                   
    1UTIME              13:59:17                                        
    1UHOST                                                              
    1UPGM               CalculiX                                        
    1UVERSION           Version 2.20                             
    1UCOMPILETIME       Sun Jul 31 18:08:37 CEST 2022                    
    1UDIR                                                               
    1UDBN                                                               
    1UMAT    1STEEL                                                     
    2C                            44                                     1
 -1         1 0.00000E+00 0.00000E+00 0.00000E+00
 -1         2 1.00000E+01 0.00000E+00 0.00000E+00
 -1         3 2.00000E+01 0.00000E+00 0.00000E+00
 -1         4 3.00000E+01 0.00000E+00 0.00000E+00
 -1         5 4.00000E+01 0.00000E+00 0.00000E+00
 -1         6 5.00000E+01 0.00000E+00 0.00000E+00
 -1         7 6.00000E+01 0.00000E+00 0.00000E+00
 -1         8 7.00000E+01 0.00000E+00 0.00000E+00
 -1         9 8.00000E+01 0.00000E+00 0.00000E+00
 -1        10 9.00000E+01 0.00000E+00 0.00000E+00
 -1        11 1.00000E+02 0.00000E+00 0.00000E+00
 -1        12 0.00000E+00 1.00000E+01 0.00000E+00
 -1        13 1.00000E+01 1.00000E+01 0.00000E+00
 -1        14 2.00000E+01 1.00000E+01 0.00000E+00
 -1        15 3.00000E+01 1.00000E+01 0.00000E+00
 -1        16 4.00000E+01 1.00000E+01 0.00000E+00
 -1        17 5.00000E+01 1.00000E+01 0.00000E+00
 -1        18 6.00000E+01 1.00000E+01 0.00000E+00
 -1        19 7.00000E+01 1.00000E+01 0.00000E+00
 -1        20 8.00000E+01 1.00000E+01 0.00000E+00
 -1        21 9.00000E+01 1.00000E+01 0.00000E+00
 -1        22 1.00000E+02 1.00000E+01 0.00000E+00
 -1        23 0.00000E+00 0.00000E+00 1.00000E+01
 -1        24 1.00000E+01 0.00000E+00 1.00000E+01
 -1        25 2.00000E+01 0.00000E+00 1.00000E+01
 -1        26 3.00000E+01 0.00000E+00 1.00000E+01
 -1        27 4.00000E+01 0.00000E+00 1.00000E+01
 -1        28 5.00000E+01 0.00000E+00 1.00000E+01
 -1        29 6.00000E+01 0.00000E+00 1.00000E+01
 -1        30 7.00000E+01 0.00000E+00 1.00000E+01
 -1        31 8.00000E+01 0.00000E+00 1.00000E+01
 -1        32 9.00000E+01 0.00000E+00 1.00000E+01
 -1        33 1.00000E+02 0.00000E+00 1.00000E+01
 -1        34 0.00000E+00 1.00000E+01 1.00000E+01
 -1        35 1.00000E+01 1.00000E+01 1.00000E+01
 -1        36 2.00000E+01 1.00000E+01 1.00000E+01
 -1        37 3.00000E+01 1.00000E+01 1.00000E+01
 -1        38 4.00000E+01 1.00000E+01 1.00000E+01
 -1        39 5.00000E+01 1.00000E+01 1.00000E+01
 -1        40 6.00000E+01 1.00000E+01 1.00000E+01
 -1        41 7.00000E+01 1.00000E+01 1.00000E+01
 -1        42 8.00000E+01 1.00000E+01 1.00000E+01
 -1        43 9.00000E+01 1.00000E+01 1.00000E+01
 -1        44 1.00000E+02 1.00000E+01 1.00000E+01
 -3
    3C                            10                                     1
 -1         1    1    0    1
 -2         1         2        13        12        23        24        35        34
 -1         2    1    0    1
 -2         2         3        14        13        24        25        36        35
 -1         3    1    0    1
 -2         3         4        15        14        25        26        37        36
 -1         4    1    0    1
 -2         4         5        16        15        26        27        38        37
 -1         5    1    0    1
 -2         5         6        17        16        27        28        39        38
 -1         6    1    0    1
 -2         6         7        18        17        28        29        40        39
 -1         7    1    0    1
 -2         7         8        19        18        29        30        41        40
 -1         8    1    0    1
 -2         8         9        20        19        30        31        42        41
 -1         9    1    0    1
 -2         9        10        21        20        31        32        43        42
 -1        10    1    0    1
 -2        10        11        22        21        32        33        44        43
 -3
    1PSTEP                         1           1           1          
  100CL  101 1.000000000          44                     0    1           1
 -4  DISP        4    1
 -5  D1          1    2    1    0
 -5  D2          1    2    2    0
 -5  D3          1    2    3    0
 -5  ALL         1    2    0    0    1ALL
 -1         1 0.00000E+00 0.00000E+00 0.00000E+00
 -1         2-6.72393E-03-7.21917E-03-1.35275E-03
 -1         3-1.31024E-02-2.75407E-02-9.44548E-04
 -1         4-1.86615E-02-5.97998E-02-8.75512E-04
 -1         5-2.34924E-02-1.02449E-01-7.41156E-04
 -1         6-2.75777E-02-1.54014E-01-6.19365E-04
 -1         7-3.09206E-02-2.13008E-01-4.95233E-04
 -1         8-3.35205E-02-2.77944E-01-3.71141E-04
 -1         9-3.53781E-02-3.47338E-01-2.49171E-04
 -1        10-3.64902E-02-4.19702E-01-1.15738E-04
 -1        11-3.68729E-02-4.93560E-01-4.19095E-05
 -1        12 0.00000E+00 0.00000E+00 0.00000E+00
 -1        13 6.72393E-03-7.21917E-03 1.35275E-03
 -1        14 1.31024E-02-2.75407E-02 9.44548E-04
 -1        15 1.86615E-02-5.97998E-02 8.75512E-04
 -1        16 2.34924E-02-1.02449E-01 7.41156E-04
 -1        17 2.75777E-02-1.54014E-01 6.19365E-04
 -1        18 3.09206E-02-2.13008E-01 4.95233E-04
 -1        19 3.35205E-02-2.77944E-01 3.71141E-04
 -1        20 3.53781E-02-3.47338E-01 2.49171E-04
 -1        21 3.64902E-02-4.19702E-01 1.15738E-04
 -1        22 3.68729E-02-4.93560E-01 4.19095E-05
 -1        23 0.00000E+00 0.00000E+00 0.00000E+00
 -1        24-6.72393E-03-7.21917E-03 1.35275E-03
 -1        25-1.31024E-02-2.75407E-02 9.44548E-04
 -1        26-1.86615E-02-5.97998E-02 8.75512E-04
 -1        27-2.34924E-02-1.02449E-01 7.41156E-04
 -1        28-2.75777E-02-1.54014E-01 6.19365E-04
 -1        29-3.09206E-02-2.13008E-01 4.95233E-04
 -1        30-3.35205E-02-2.77944E-01 3.71141E-04
 -1        31-3.53781E-02-3.47338E-01 2.49171E-04
 -1        32-3.64902E-02-4.19702E-01 1.15738E-04
 -1        33-3.68729E-02-4.93560E-01 4.19095E-05
 -1        34 0.00000E+00 0.00000E+00 0.00000E+00
 -1        35 6.72393E-03-7.21917E-03-1.35275E-03
 -1        36 1.31024E-02-2.75407E-02-9.44548E-04
 -1        37 1.86615E-02-5.97998E-02-8.75512E-04
 -1        38 2.34924E-02-1.02449E-01-7.41156E-04
 -1        39 2.75777E-02-1.54014E-01-6.19365E-04
 -1        40 3.09206E-02-2.13008E-01-4.95233E-04
 -1        41 3.35205E-02-2.77944E-01-3.71141E-04
 -1        42 3.53781E-02-3.47338E-01-2.49171E-04
 -1        43 3.64902E-02-4.19702E-01-1.15738E-04
 -1        44 3.68729E-02-4.93560E-01-4.19095E-05
 -3
    1PSTEP                         2           1           1          
  100CL  101 1.000000000          44                     0    1           1
 -4  STRESS      6    1
 -5  SXX         1    4    1    1
 -5  SYY         1    4    2    2
 -5  SZZ         1    4    3    3
 -5  SXY         1    4    1    2
 -5  SYZ         1    4    2    3
 -5  SZX         1    4    3    1
 -1         1-1.90079E+02-8.14624E+01-8.14622E+01-5.83082E+01 7.75047E-05-1.09259E+01
 -1         2-1.52418E+02-4.65920E+01-2.88819E+00-2.60469E+00 2.18519E+01-3.81447E+00
 -1         3-1.45844E+02-4.94264E+01-1.89105E+01-6.90762E-01 1.52580E+01 1.92727E+00
 -1         4-1.25644E+02-4.17250E+01-1.34394E+01-1.05939E+00 1.41428E+01 8.21381E-01
 -1         5-1.08068E+02-3.60526E+01-1.21078E+01-9.88378E-01 1.19724E+01 1.03443E+00
 -1         6-8.99867E+01-2.99900E+01-9.97985E+00-1.00214E+00 1.00051E+01 9.93137E-01
 -1         7-7.19998E+01-2.40000E+01-8.00030E+00-9.99045E-01 7.99986E+00 1.00243E+00
 -1         8-5.40112E+01-1.80088E+01-6.01817E+00-1.00196E+00 5.99532E+00 9.93695E-01
 -1         9-3.59374E+01-1.19517E+01-3.90160E+00-9.89380E-01 4.02505E+00 1.03142E+00
 -1        10-1.83242E+01-6.25070E+00-2.51149E+00-1.05419E+00 1.86960E+00 8.37008E-01
 -1        11-9.80329E+00-3.62112E+00-2.26712E+00-9.08757E-01 6.77000E-01 5.96299E-01
 -1        12 1.90079E+02 8.14624E+01 8.14622E+01-5.83082E+01 7.75047E-05 1.09259E+01
 -1        13 1.52418E+02 4.65920E+01 2.88819E+00-2.60469E+00 2.18519E+01 3.81447E+00
 -1        14 1.45844E+02 4.94264E+01 1.89105E+01-6.90762E-01 1.52580E+01-1.92727E+00
 -1        15 1.25644E+02 4.17250E+01 1.34394E+01-1.05939E+00 1.41428E+01-8.21381E-01
 -1        16 1.08068E+02 3.60526E+01 1.21078E+01-9.88378E-01 1.19724E+01-1.03443E+00
 -1        17 8.99867E+01 2.99900E+01 9.97985E+00-1.00214E+00 1.00051E+01-9.93137E-01
 -1        18 7.19998E+01 2.40000E+01 8.00030E+00-9.99045E-01 7.99986E+00-1.00243E+00
 -1        19 5.40112E+01 1.80088E+01 6.01817E+00-1.00196E+00 5.99532E+00-9.93695E-01
 -1        20 3.59374E+01 1.19517E+01 3.90160E+00-9.89380E-01 4.02505E+00-1.03142E+00
 -1        21 1.83242E+01 6.25070E+00 2.51149E+00-1.05419E+00 1.86960E+00-8.37008E-01
 -1        22 9.80329E+00 3.62112E+00 2.26712E+00-9.08757E-01 6.77000E-01-5.96299E-01
 -1        23-1.90079E+02-8.14624E+01-8.14622E+01-5.83082E+01-7.75047E-05 1.09259E+01
 -1        24-1.52418E+02-4.65920E+01-2.88819E+00-2.60469E+00-2.18519E+01 3.81447E+00
 -1        25-1.45844E+02-4.94264E+01-1.89105E+01-6.90762E-01-1.52580E+01-1.92727E+00
 -1        26-1.25644E+02-4.17250E+01-1.34394E+01-1.05939E+00-1.41428E+01-8.21381E-01
 -1        27-1.08068E+02-3.60526E+01-1.21078E+01-9.88378E-01-1.19724E+01-1.03443E+00
 -1        28-8.99867E+01-2.99900E+01-9.97985E+00-1.00214E+00-1.00051E+01-9.93137E-01
 -1        29-7.19998E+01-2.40000E+01-8.00030E+00-9.99045E-01-7.99986E+00-1.00243E+00
 -1        30-5.40112E+01-1.80088E+01-6.01817E+00-1.00196E+00-5.99532E+00-9.93695E-01
 -1        31-3.59374E+01-1.19517E+01-3.90160E+00-9.89380E-01-4.02505E+00-1.03142E+00
 -1        32-1.83242E+01-6.25070E+00-2.51149E+00-1.05419E+00-1.86960E+00-8.37008E-01
 -1        33-9.80329E+00-3.62112E+00-2.26712E+00-9.08757E-01-6.77000E-01-5.96299E-01
 -1        34 1.90079E+02 8.14624E+01 8.14622E+01-5.83082E+01-7.75047E-05-1.09259E+01
 -1        35 1.52418E+02 4.65920E+01 2.88819E+00-2.60469E+00-2.18519E+01-3.81447E+00
 -1        36 1.45844E+02 4.94264E+01 1.89105E+01-6.90762E-01-1.52580E+01 1.92727E+00
 -1        37 1.25644E+02 4.17250E+01 1.34394E+01-1.05939E+00-1.41428E+01 8.21381E-01
 -1        38 1.08068E+02 3.60526E+01 1.21078E+01-9.88378E-01-1.19724E+01 1.03443E+00
 -1        39 8.99867E+01 2.99900E+01 9.97985E+00-1.00214E+00-1.00051E+01 9.93137E-01
 -1        40 7.19998E+01 2.40000E+01 8.00030E+00-9.99045E-01-7.99986E+00 1.00243E+00
 -1        41 5.40112E+01 1.80088E+01 6.01817E+00-1.00196E+00-5.99532E+00 9.93695E-01
 -1        42 3.59374E+01 1.19517E+01 3.90160E+00-9.89380E-01-4.02505E+00 1.03142E+00
 -1        43 1.83242E+01 6.25070E+00 2.51149E+00-1.05419E+00-1.86960E+00 8.37008E-01
 -1        44 9.80329E+00 3.62112E+00 2.26712E+00-9.08757E-01-6.77000E-01 5.96299E-01
 -3
    1PSTEP                         3           1           1          
  100CL  101 1.000000000          44                     0    1           1
 -4  TOSTRAIN    6    1
 -5  EXX         1    4    1    1
 -5  EYY         1    4    2    2
 -5  EZZ         1    4    3    3
 -5  EXY         1    4    1    2
 -5  EYZ         1    4    2    3
 -5  EZX         1    4    3    1
 -1         1-6.72389E-04 1.41656E-20 9.59582E-10-3.60955E-04 4.79791E-10-6.76365E-05
 -1         2-6.55116E-04 5.10942E-17 2.70547E-04-1.61243E-05 1.35274E-04-2.36134E-05
 -1         3-5.96873E-04 3.61006E-17 1.88908E-04-4.27615E-06 9.44542E-05 1.19307E-05
 -1         4-5.19498E-04 2.89080E-17 1.75101E-04-6.55816E-06 8.75507E-05 5.08474E-06
 -1         5-4.45807E-04 2.63844E-17 1.48230E-04-6.11853E-06 7.41151E-05 6.40360E-06
 -1         6-3.71408E-04 1.46675E-17 1.23872E-04-6.20374E-06 6.19361E-05 6.14799E-06
 -1         7-2.97141E-04 2.36616E-17 9.90459E-05-6.18457E-06 4.95229E-05 6.20550E-06
 -1         8-2.22872E-04 9.29076E-18 7.42278E-05-6.20258E-06 3.71139E-05 6.15145E-06
 -1         9-1.48483E-04 3.74414E-18 4.98340E-05-6.12473E-06 2.49170E-05 6.38500E-06
 -1        10-7.47406E-05 1.57538E-17 2.31475E-05-6.52591E-06 1.15737E-05 5.18148E-06
 -1        11-3.82706E-05 1.49580E-17 8.38191E-06-5.62564E-06 4.19095E-06 3.69137E-06
 -1        12 6.72389E-04 1.41656E-20-9.59582E-10-3.60955E-04 4.79791E-10 6.76365E-05
 -1        13 6.55116E-04 5.10973E-17-2.70547E-04-1.61243E-05 1.35274E-04 2.36134E-05
 -1        14 5.96873E-04 3.61006E-17-1.88908E-04-4.27615E-06 9.44542E-05-1.19307E-05
 -1        15 5.19498E-04 2.86814E-17-1.75101E-04-6.55816E-06 8.75507E-05-5.08474E-06
 -1        16 4.45807E-04 2.52035E-17-1.48230E-04-6.11853E-06 7.41151E-05-6.40360E-06
 -1        17 3.71408E-04 1.75354E-17-1.23872E-04-6.20374E-06 6.19361E-05-6.14799E-06
 -1        18 2.97141E-04 2.11618E-17-9.90459E-05-6.18457E-06 4.95229E-05-6.20550E-06
 -1        19 2.22872E-04 1.32284E-17-7.42278E-05-6.20258E-06 3.71139E-05-6.15145E-06
 -1        20 1.48483E-04 4.49350E-18-4.98340E-05-6.12473E-06 2.49170E-05-6.38500E-06
 -1        21 7.47406E-05 1.38827E-17-2.31475E-05-6.52591E-06 1.15737E-05-5.18148E-06
 -1        22 3.82706E-05 1.14072E-17-8.38191E-06-5.62564E-06 4.19095E-06-3.69137E-06
 -1        23-6.72389E-04 2.21437E-20 9.59582E-10-3.60955E-04-4.79791E-10 6.76365E-05
 -1        24-6.55116E-04-5.63224E-17 2.70547E-04-1.61243E-05-1.35274E-04 2.36134E-05
 -1        25-5.96873E-04-3.69160E-17 1.88908E-04-4.27615E-06-9.44542E-05-1.19307E-05
 -1        26-5.19498E-04-3.47652E-17 1.75101E-04-6.55816E-06-8.75507E-05-5.08474E-06
 -1        27-4.45807E-04-3.89869E-17 1.48230E-04-6.11853E-06-7.41151E-05-6.40360E-06
 -1        28-3.71408E-04-1.62535E-17 1.23872E-04-6.20374E-06-6.19361E-05-6.14799E-06
 -1        29-2.97141E-04-1.63412E-17 9.90459E-05-6.18457E-06-4.95229E-05-6.20550E-06
 -1        30-2.22872E-04-2.09098E-17 7.42278E-05-6.20258E-06-3.71139E-05-6.15145E-06
 -1        31-1.48483E-04 1.55903E-17 4.98340E-05-6.12473E-06-2.49170E-05-6.38500E-06
 -1        32-7.47406E-05-2.50522E-17 2.31475E-05-6.52591E-06-1.15737E-05-5.18148E-06
 -1        33-3.82706E-05-9.98830E-18 8.38191E-06-5.62564E-06-4.19095E-06-3.69137E-06
 -1        34 6.72389E-04 2.21437E-20-9.59582E-10-3.60955E-04-4.79791E-10-6.76365E-05
 -1        35 6.55116E-04-5.63342E-17-2.70547E-04-1.61243E-05-1.35274E-04-2.36134E-05
 -1        36 5.96873E-04-3.68753E-17-1.88908E-04-4.27615E-06-9.44542E-05 1.19307E-05
 -1        37 5.19498E-04-3.49659E-17-1.75101E-04-6.55816E-06-8.75507E-05 5.08474E-06
 -1        38 4.45807E-04-3.69104E-17-1.48230E-04-6.11853E-06-7.41151E-05 6.40360E-06
 -1        39 3.71408E-04-2.09951E-17-1.23872E-04-6.20374E-06-6.19361E-05 6.14799E-06
 -1        40 2.97141E-04-1.45447E-17-9.90459E-05-6.18457E-06-4.95229E-05 6.20550E-06
 -1        41 2.22872E-04-2.72157E-17-7.42278E-05-6.20258E-06-3.71139E-05 6.15145E-06
 -1        42 1.48483E-04 2.12908E-17-4.98340E-05-6.12473E-06-2.49170E-05 6.38500E-06
 -1        43 7.47406E-05-1.74419E-17-2.31475E-05-6.52591E-06-1.15737E-05 5.18148E-06
 -1        44 3.82706E-05-6.62160E-18-8.38191E-06-5.62564E-06-4.19095E-06 3.69137E-06
 -3
    1PSTEP                         4           1           1          
  100CL  101 1.000000000          44                     0    1           1
 -4  ERROR       1    1
 -5  STR(%)      1    1    0    0
 -1         1 9.50362E+01
 -1         2 9.50362E+01
 -1         3 8.16797E+01
 -1         4 8.18643E+01
 -1         5 8.21829E+01
 -1         6 8.26078E+01
 -1         7 8.32654E+01
 -1         8 8.42050E+01
 -1         9 8.72369E+01
 -1        10 8.72369E+01
 -1        11 8.05917E+01
 -1        12 9.50362E+01
 -1        13 9.50362E+01
 -1        14 8.16797E+01
 -1        15 8.18643E+01
 -1        16 8.21829E+01
 -1        17 8.26078E+01
 -1        18 8.32654E+01
 -1        19 8.42050E+01
 -1        20 8.72369E+01
 -1        21 8.72369E+01
 -1        22 8.05917E+01
 -1        23 9.50362E+01
 -1        24 9.50362E+01
 -1        25 8.16797E+01
 -1        26 8.18643E+01
 -1        27 8.21829E+01
 -1        28 8.26078E+01
 -1        29 8.32654E+01
 -1        30 8.42050E+01
 -1        31 8.72369E+01
 -1        32 8.72369E+01
 -1        33 8.05917E+01
 -1        34 9.50362E+01
 -1        35 9.50362E+01
 -1        36 8.16797E+01
 -1        37 8.18643E+01
 -1        38 8.21829E+01
 -1        39 8.26078E+01
 -1        40 8.32654E+01
 -1        41 8.42050E+01
 -1        42 8.72369E+01
 -1        43 8.72369E+01
 -1        44 8.05917E+01
 -3
 9999
