<?xml version="1.0"?>
<VTKFile type="PolyData" version="0.1" byte_order="LittleEndian">
  <PolyData>
    <Piece NumberOfPoints="44" NumberOfVerts="44" NumberOfLines="0" NumberOfStrips="0" NumberOfPolys="0">
      <Points>
        <DataArray type="Float32" Name="Points" NumberOfComponents="3" format="ascii">
          0 0 0 10 0 0 20 0 0 30 0 0 40 0 0 50 0 0 60 0 0 70 0 0 80 0 0 90 0 0 100 0 0 0 10 0 10 10 0 20 10 0 30 10 0 40 10 0 50 10 0 60 10 0 70 10 0 80 10 0 90 10 0 100 10 0 0 0 10 10 0 10 20 0 10 30 0 10 40 0 10 50 0 10 60 0 10 70 0 10 80 0 10 90 0 10 100 0 10 0 10 10 10 10 10 20 10 10 30 10 10 40 10 10 50 10 10 60 10 10 70 10 10 80 10 10 90 10 10 100 10 10
        </DataArray>
      </Points>
      <Verts>
        <DataArray type="Int32" Name="connectivity" format="ascii">
          0 1 2 3 4 5 6 7 8 9 10 11 12 13 14 15 16 17 18 19 20 21 22 23 24 25 26 27 28 29 30 31 32 33 34 35 36 37 38 39 40 41 42 43
        </DataArray>
        <DataArray type="Int32" Name="offsets" format="ascii">
          1 2 3 4 5 6 7 8 9 10 11 12 13 14 15 16 17 18 19 20 21 22 23 24 25 26 27 28 29 30 31 32 33 34 35 36 37 38 39 40 41 42 43 44
        </DataArray>
      </Verts>
      <PointData>
          
        <DataArray type="Float32" Name="disp" NumberOfComponents="1" format="ascii">
          0 -0.00672393 -0.0131024 -0.0186615 -0.0234924 -0.0275777 -0.0309206 -0.0335205 -0.0353781 -0.0364902 -0.0368729 0 0.00672393 0.0131024 0.0186615 0.0234924 0.0275777 0.0309206 0.0335205 0.0353781 0.0364902 0.0368729 0 -0.00672393 -0.0131024 -0.0186615 -0.0234924 -0.0275777 -0.0309206 -0.0335205 -0.0353781 -0.0364902 -0.0368729 0 0.00672393 0.0131024 0.0186615 0.0234924 0.0275777 0.0309206 0.0335205 0.0353781 0.0364902 0.0368729
        </DataArray>
        <DataArray type="Float32" Name="stress" NumberOfComponents="1" format="ascii">
          -190.079 -152.418 -145.844 -125.644 -108.068 -89.9867 -71.9998 -54.0112 -35.9374 -18.3242 -9.80329 190.079 152.418 145.844 125.644 108.068 89.9867 71.9998 54.0112 35.9374 18.3242 9.80329 -190.079 -152.418 -145.844 -125.644 -108.068 -89.9867 -71.9998 -54.0112 -35.9374 -18.3242 -9.80329 190.079 152.418 145.844 125.644 108.068 89.9867 71.9998 54.0112 35.9374 18.3242 9.80329
        </DataArray>
        <DataArray type="Float32" Name="tostrain" NumberOfComponents="1" format="ascii">
          -0.000672389 -0.000655116 -0.000596873 -0.000519498 -0.000445807 -0.000371408 -0.000297141 -0.000222872 -0.000148483 -7.47406e-05 -3.82706e-05 0.000672389 0.000655116 0.000596873 0.000519498 0.000445807 0.000371408 0.000297141 0.000222872 0.000148483 7.47406e-05 3.82706e-05 -0.000672389 -0.000655116 -0.000596873 -0.000519498 -0.000445807 -0.000371408 -0.000297141 -0.000222872 -0.000148483 -7.47406e-05 -3.82706e-05 0.000672389 0.000655116 0.000596873 0.000519498 0.000445807 0.000371408 0.000297141 0.000222872 0.000148483 7.47406e-05 3.82706e-05
        </DataArray>
        <DataArray type="Float32" Name="error" NumberOfComponents="1" format="ascii">
          95.0362 95.0362 81.6797 81.8643 82.1829 82.6078 83.2654 84.205 87.2369 87.2369 80.5917 95.0362 95.0362 81.6797 81.8643 82.1829 82.6078 83.2654 84.205 87.2369 87.2369 80.5917 95.0362 95.0362 81.6797 81.8643 82.1829 82.6078 83.2654 84.205 87.2369 87.2369 80.5917 95.0362 95.0362 81.6797 81.8643 82.1829 82.6078 83.2654 84.205 87.2369 87.2369 80.5917
        </DataArray>
      </PointData>
    </Piece>
  </PolyData>
</VTKFile>