<?xml version="1.0"?>
<VTKFile type="PolyData" version="0.1" byte_order="LittleEndian">
  <PolyData>
    <Piece NumberOfPoints="44" NumberOfVerts="44" NumberOfLines="0" NumberOfStrips="0" NumberOfPolys="0">
      <Points>
        <DataArray type="Float64" NumberOfComponents="3" format="ascii">0 0 0 10 0 0 20 0 0 30 0 0 40 0 0 50 0 0 60 0 0 70 0 0 80 0 0 90 0 0 100 0 0 0 10 0 10 10 0 20 10 0 30 10 0 40 10 0 50 10 0 60 10 0 70 10 0 80 10 0 90 10 0 100 10 0 0 0 10 10 0 10 20 0 10 30 0 10 40 0 10 50 0 10 60 0 10 70 0 10 80 0 10 90 0 10 100 0 10 0 10 10 10 10 10 20 10 10 30 10 10 40 10 10 50 10 10 60 10 10 70 10 10 80 10 10 90 10 10 100 10 10</DataArray>
      </Points>
      <Verts>
        <DataArray type="Int32" Name="connectivity" format="ascii">0 1 2 3 4 5 6 7 8 9 10 11 12 13 14 15 16 17 18 19 20 21 22 23 24 25 26 27 28 29 30 31 32 33 34 35 36 37 38 39 40 41 42 43</DataArray>
        <DataArray type="Int32" Name="offsets" format="ascii">1 2 3 4 5 6 7 8 9 10 11 12 13 14 15 16 17 18 19 20 21 22 23 24 25 26 27 28 29 30 31 32 33 34 35 36 37 38 39 40 41 42 43 44</DataArray>
      </Verts>
      <PointData>
        <DataArray type="Float64" Name="disp" NumberOfComponents="3" format="ascii">0 0 0 -0.00672393 -0.00721917 -0.00135275 -0.0131024 -0.0275407 -0.000944548 -0.0186615 -0.0597998 -0.000875512 -0.0234924 -0.102449 -0.000741156 -0.0275777 -0.154014 -0.000619365 -0.0309206 -0.213008 -0.000495233 -0.0335205 -0.277944 -0.000371141 -0.0353781 -0.347338 -0.000249171 -0.0364902 -0.419702 -0.000115738 -0.0368729 -0.49356 -4.19095e-05 0 0 0 0.00672393 -0.00721917 0.00135275 0.0131024 -0.0275407 0.000944548 0.0186615 -0.0597998 0.000875512 0.0234924 -0.102449 0.000741156 0.0275777 -0.154014 0.000619365 0.0309206 -0.213008 0.000495233 0.0335205 -0.277944 0.000371141 0.0353781 -0.347338 0.000249171 0.0364902 -0.419702 0.000115738 0.0368729 -0.49356 4.19095e-05 0 0 0 -0.00672393 -0.00721917 0.00135275 -0.0131024 -0.0275407 0.000944548 -0.0186615 -0.0597998 0.000875512 -0.0234924 -0.102449 0.000741156 -0.0275777 -0.154014 0.000619365 -0.0309206 -0.213008 0.000495233 -0.0335205 -0.277944 0.000371141 -0.0353781 -0.347338 0.000249171 -0.0364902 -0.419702 0.000115738 -0.0368729 -0.49356 4.19095e-05 0 0 0 0.00672393 -0.00721917 -0.00135275 0.0131024 -0.0275407 -0.000944548 0.0186615 -0.0597998 -0.000875512 0.0234924 -0.102449 -0.000741156 0.0275777 -0.154014 -0.000619365 0.0309206 -0.213008 -0.000495233 0.0335205 -0.277944 -0.000371141 0.0353781 -0.347338 -0.000249171 0.0364902 -0.419702 -0.000115738 0.0368729 -0.49356 -4.19095e-05</DataArray>
        <DataArray type="Float64" Name="stress" NumberOfComponents="6" format="ascii">-190.079 -81.4624 -81.4622 -58.3082 7.75047e-05 -10.9259 -152.418 -46.592 -2.88819 -2.60469 21.8519 -3.81447 -145.844 -49.4264 -18.9105 -0.690762 15.258 1.92727 -125.644 -41.725 -13.4394 -1.05939 14.1428 0.821381 -108.068 -36.0526 -12.1078 -0.988378 11.9724 1.03443 -89.9867 -29.99 -9.97985 -1.00214 10.0051 0.993137 -71.9998 -24 -8.0003 -0.999045 7.99986 1.00243 -54.0112 -18.0088 -6.01817 -1.00196 5.99532 0.993695 -35.9374 -11.9517 -3.9016 -0.98938 4.02505 1.03142 -18.3242 -6.2507 -2.51149 -1.05419 1.8696 0.837008 -9.80329 -3.62112 -2.26712 -0.908757 0.677 0.596299 190.079 81.4624 81.4622 -58.3082 7.75047e-05 10.9259 152.418 46.592 2.88819 -2.60469 21.8519 3.81447 145.844 49.4264 18.9105 -0.690762 15.258 -1.92727 125.644 41.725 13.4394 -1.05939 14.1428 -0.821381 108.068 36.0526 12.1078 -0.988378 11.9724 -1.03443 89.9867 29.99 9.97985 -1.00214 10.0051 -0.993137 71.9998 24 8.0003 -0.999045 7.99986 -1.00243 54.0112 18.0088 6.01817 -1.00196 5.99532 -0.993695 35.9374 11.9517 3.9016 -0.98938 4.02505 -1.03142 18.3242 6.2507 2.51149 -1.05419 1.8696 -0.837008 9.80329 3.62112 2.26712 -0.908757 0.677 -0.596299 -190.079 -81.4624 -81.4622 -58.3082 -7.75047e-05 10.9259 -152.418 -46.592 -2.88819 -2.60469 -21.8519 3.81447 -145.844 -49.4264 -18.9105 -0.690762 -15.258 -1.92727 -125.644 -41.725 -13.4394 -1.05939 -14.1428 -0.821381 -108.068 -36.0526 -12.1078 -0.988378 -11.9724 -1.03443 -89.9867 -29.99 -9.97985 -1.00214 -10.0051 -0.993137 -71.9998 -24 -8.0003 -0.999045 -7.99986 -1.00243 -54.0112 -18.0088 -6.01817 -1.00196 -5.99532 -0.993695 -35.9374 -11.9517 -3.9016 -0.98938 -4.02505 -1.03142 -18.3242 -6.2507 -2.51149 -1.05419 -1.8696 -0.837008 -9.80329 -3.62112 -2.26712 -0.908757 -0.677 -0.596299 190.079 81.4624 81.4622 -58.3082 -7.75047e-05 -10.9259 152.418 46.592 2.88819 -2.60469 -21.8519 -3.81447 145.844 49.4264 18.9105 -0.690762 -15.258 1.92727 125.644 41.725 13.4394 -1.05939 -14.1428 0.821381 108.068 36.0526 12.1078 -0.988378 -11.9724 1.03443 89.9867 29.99 9.97985 -1.00214 -10.0051 0.993137 71.9998 24 8.0003 -0.999045 -7.99986 1.00243 54.0112 18.0088 6.01817 -1.00196 -5.99532 0.993695 35.9374 11.9517 3.9016 -0.98938 -4.02505 1.03142 18.3242 6.2507 2.51149 -1.05419 -1.8696 0.837008 9.80329 3.62112 2.26712 -0.908757 -0.677 0.596299</DataArray>
        <!-- components: STRESS -->
        <DataArray type="Float64" Name="tostrain" NumberOfComponents="6" format="ascii">-0.000672389 1.41656e-20 9.59582e-10 -0.000360955 4.79791e-10 -6.76365e-05 -0.000655116 5.10942e-17 0.000270547 -1.61243e-05 0.000135274 -2.36134e-05 -0.000596873 3.61006e-17 0.000188908 -4.27615e-06 9.44542e-05 1.19307e-05 -0.000519498 2.8908e-17 0.000175101 -6.55816e-06 8.75507e-05 5.08474e-06 -0.000445807 2.63844e-17 0.00014823 -6.11853e-06 7.41151e-05 6.4036e-06 -0.000371408 1.46675e-17 0.000123872 -6.20374e-06 6.19361e-05 6.14799e-06 -0.000297141 2.36616e-17 9.90459e-05 -6.18457e-06 4.95229e-05 6.2055e-06 -0.000222872 9.29076e-18 7.42278e-05 -6.20258e-06 3.71139e-05 6.15145e-06 -0.000148483 3.74414e-18 4.9834e-05 -6.12473e-06 2.4917e-05 6.385e-06 -7.47406e-05 1.57538e-17 2.31475e-05 -6.52591e-06 1.15737e-05 5.18148e-06 -3.82706e-05 1.4958e-17 8.38191e-06 -5.62564e-06 4.19095e-06 3.69137e-06 0.000672389 1.41656e-20 -9.59582e-10 -0.000360955 4.79791e-10 6.76365e-05 0.000655116 5.10973e-17 -0.000270547 -1.61243e-05 0.000135274 2.36134e-05 0.000596873 3.61006e-17 -0.000188908 -4.27615e-06 9.44542e-05 -1.19307e-05 0.000519498 2.86814e-17 -0.000175101 -6.55816e-06 8.75507e-05 -5.08474e-06 0.000445807 2.52035e-17 -0.00014823 -6.11853e-06 7.41151e-05 -6.4036e-06 0.000371408 1.75354e-17 -0.000123872 -6.20374e-06 6.19361e-05 -6.14799e-06 0.000297141 2.11618e-17 -9.90459e-05 -6.18457e-06 4.95229e-05 -6.2055e-06 0.000222872 1.32284e-17 -7.42278e-05 -6.20258e-06 3.71139e-05 -6.15145e-06 0.000148483 4.4935e-18 -4.9834e-05 -6.12473e-06 2.4917e-05 -6.385e-06 7.47406e-05 1.38827e-17 -2.31475e-05 -6.52591e-06 1.15737e-05 -5.18148e-06 3.82706e-05 1.14072e-17 -8.38191e-06 -5.62564e-06 4.19095e-06 -3.69137e-06 -0.000672389 2.21437e-20 9.59582e-10 -0.000360955 -4.79791e-10 6.76365e-05 -0.000655116 -5.63224e-17 0.000270547 -1.61243e-05 -0.000135274 2.36134e-05 -0.000596873 -3.6916e-17 0.000188908 -4.27615e-06 -9.44542e-05 -1.19307e-05 -0.000519498 -3.47652e-17 0.000175101 -6.55816e-06 -8.75507e-05 -5.08474e-06 -0.000445807 -3.89869e-17 0.00014823 -6.11853e-06 -7.41151e-05 -6.4036e-06 -0.000371408 -1.62535e-17 0.000123872 -6.20374e-06 -6.19361e-05 -6.14799e-06 -0.000297141 -1.63412e-17 9.90459e-05 -6.18457e-06 -4.95229e-05 -6.2055e-06 -0.000222872 -2.09098e-17 7.42278e-05 -6.20258e-06 -3.71139e-05 -6.15145e-06 -0.000148483 1.55903e-17 4.9834e-05 -6.12473e-06 -2.4917e-05 -6.385e-06 -7.47406e-05 -2.50522e-17 2.31475e-05 -6.52591e-06 -1.15737e-05 -5.18148e-06 -3.82706e-05 -9.9883e-18 8.38191e-06 -5.62564e-06 -4.19095e-06 -3.69137e-06 0.000672389 2.21437e-20 -9.59582e-10 -0.000360955 -4.79791e-10 -6.76365e-05 0.000655116 -5.63342e-17 -0.000270547 -1.61243e-05 -0.000135274 -2.36134e-05 0.000596873 -3.68753e-17 -0.000188908 -4.27615e-06 -9.44542e-05 1.19307e-05 0.000519498 -3.49659e-17 -0.000175101 -6.55816e-06 -8.75507e-05 5.08474e-06 0.000445807 -3.69104e-17 -0.00014823 -6.11853e-06 -7.41151e-05 6.4036e-06 0.000371408 -2.09951e-17 -0.000123872 -6.20374e-06 -6.19361e-05 6.14799e-06 0.000297141 -1.45447e-17 -9.90459e-05 -6.18457e-06 -4.95229e-05 6.2055e-06 0.000222872 -2.72157e-17 -7.42278e-05 -6.20258e-06 -3.71139e-05 6.15145e-06 0.000148483 2.12908e-17 -4.9834e-05 -6.12473e-06 -2.4917e-05 6.385e-06 7.47406e-05 -1.74419e-17 -2.31475e-05 -6.52591e-06 -1.15737e-05 5.18148e-06 3.82706e-05 -6.6216e-18 -8.38191e-06 -5.62564e-06 -4.19095e-06 3.69137e-06</DataArray>
        <DataArray type="Float64" Name="error" format="ascii">95.0362 95.0362 81.6797 81.8643 82.1829 82.6078 83.2654 84.205 87.2369 87.2369 80.5917 95.0362 95.0362 81.6797 81.8643 82.1829 82.6078 83.2654 84.205 87.2369 87.2369 80.5917 95.0362 95.0362 81.6797 81.8643 82.1829 82.6078 83.2654 84.205 87.2369 87.2369 80.5917 95.0362 95.0362 81.6797 81.8643 82.1829 82.6078 83.2654 84.205 87.2369 87.2369 80.5917</DataArray>
      </PointData>
    </Piece>
  </PolyData>
</VTKFile>
