    1C
    1USimple Warren Truss - 3 Members, Point Load at Apex               
    1UStatic Analysis - Using Beam Elements to Simulate Truss           
    1UUSER                                                              
    1UDATE              09.april.2026                                   
    1UTIME              01:31:38                                        
    1UHOST                                                              
    1UPGM               CalculiX                                        
    1UVERSION           Version 2.16                             
    1UCOMPILETIME       Mo 25. Nov 18:56:47 CET 2019                    
    1UDIR                                                               
    1UDBN                                                               
    1UMAT    1STEEL                                                     
    2C                            24                                     1
 -1         4 4.33013E+00-2.50000E+00-5.00000E+00
 -1         5-4.33013E+00 2.50000E+00-5.00000E+00
 -1         6-4.33013E+00 2.50000E+00 5.00000E+00
 -1         7 4.33013E+00-2.50000E+00 5.00000E+00
 -1        12 0.00000E+00-5.00000E+00-5.00000E+00
 -1        13 0.00000E+00 5.00000E+00-5.00000E+00
 -1        14 0.00000E+00 5.00000E+00 5.00000E+00
 -1        15 0.00000E+00-5.00000E+00 5.00000E+00
 -1        38 1.43301E+01 2.50000E+00-5.00000E+00
 -1        39 5.66987E+00-2.50000E+00-5.00000E+00
 -1        40 5.66987E+00-2.50000E+00 5.00000E+00
 -1        41 1.43301E+01 2.50000E+00 5.00000E+00
 -1        46 1.00000E+01-5.00000E+00-5.00000E+00
 -1        47 1.00000E+01 5.00000E+00-5.00000E+00
 -1        48 1.00000E+01 5.00000E+00 5.00000E+00
 -1        49 1.00000E+01-5.00000E+00 5.00000E+00
 -1        72 9.33013E+00 6.16025E+00-5.00000E+00
 -1        73 6.69873E-01 1.11603E+01-5.00000E+00
 -1        74 6.69873E-01 1.11603E+01 5.00000E+00
 -1        75 9.33013E+00 6.16025E+00 5.00000E+00
 -1        80 9.33013E+00 1.11603E+01-5.00000E+00
 -1        81 6.69873E-01 6.16025E+00-5.00000E+00
 -1        82 6.69873E-01 6.16025E+00 5.00000E+00
 -1        83 9.33013E+00 1.11603E+01 5.00000E+00
 -3
    3C                             3                                     1
 -1         1    1    0    1
 -2         4        72        73         5         7        75        74         6
 -1         2    1    0    1
 -2        38        80        81        39        41        83        82        40
 -1         3    1    0    1
 -2        12        46        47        13        15        49        48        14
 -3
    1PSTEP                         1           1           1          
  100CL  101 1.000000000          24                     0    1           1
 -4  DISP        4    1
 -5  D1          1    2    1    0
 -5  D2          1    2    2    0
 -5  D3          1    2    3    0
 -5  ALL         1    2    0    0    1ALL
 -1         4-6.37403E-22 3.68005E-22 7.36010E-22
 -1         5 6.37403E-22-3.68005E-22 7.36010E-22
 -1         6 6.37403E-22-3.68005E-22-7.36010E-22
 -1         7-6.37403E-22 3.68005E-22-7.36010E-22
 -1        12 0.00000E+00 7.36010E-22 7.36010E-22
 -1        13 0.00000E+00-7.36010E-22 7.36010E-22
 -1        14 0.00000E+00-7.36010E-22-7.36010E-22
 -1        15 0.00000E+00 7.36010E-22-7.36010E-22
 -1        38 2.85918E-05 4.85168E-05 5.04530E-21
 -1        39 8.46142E-05-4.85168E-05-4.57662E-21
 -1        40 8.46142E-05-4.85168E-05-5.04530E-21
 -1        41 2.85918E-05 4.85168E-05 4.57662E-21
 -1        46 1.12625E-04-1.10271E-21 1.57139E-21
 -1        47 5.80559E-07-1.57139E-21-1.10271E-21
 -1        48 5.80559E-07 1.10271E-21-1.57139E-21
 -1        49 1.12625E-04 1.57139E-21 1.10271E-21
 -1        72 7.54447E-06-2.81050E-04 1.67832E-20
 -1        73 5.41669E-07-2.93179E-04 7.14748E-20
 -1        74 5.41669E-07-2.93179E-04 7.08975E-20
 -1        75 7.54447E-06-2.81050E-04 1.62059E-20
 -1        80 5.41669E-07-2.81050E-04 7.45932E-20
 -1        81 7.54447E-06-2.93179E-04 1.36649E-20
 -1        82 7.54447E-06-2.93179E-04 1.30875E-20
 -1        83 5.41669E-07-2.81050E-04 7.40159E-20
 -3
    1PSTEP                         2           1           1          
  100CL  101 1.000000000          24                     0    1           1
 -4  STRESS      6    1
 -5  SXX         1    4    1    1
 -5  SYY         1    4    2    2
 -5  SZZ         1    4    3    3
 -5  SXY         1    4    1    2
 -5  SYZ         1    4    2    3
 -5  SZX         1    4    3    1
 -1         4 1.42891E-01-5.17480E+00-3.09115E-17-1.37009E+00-1.69481E-16-1.73525E-16
 -1         5 6.93618E-02-5.39538E+00-3.09115E-17-1.49744E+00 7.42147E-17 2.24784E-16
 -1         6 6.93618E-02-5.39538E+00-3.09115E-17-1.49744E+00 5.86965E-16 2.27066E-16
 -1         7 1.42891E-01-5.17480E+00-3.09115E-17-1.37009E+00 5.02952E-17-1.78300E-16
 -1        12 2.36508E+00-3.09115E-17-3.09115E-17-5.88212E-01 3.16239E-33-2.07059E-17
 -1        13 1.21515E-02-3.09115E-17-3.09115E-17-5.88212E-01 2.79922E-33-6.59084E-17
 -1        14 1.21515E-02-3.09115E-17-3.09115E-17-5.88212E-01 3.58165E-33-6.58305E-17
 -1        15 2.36508E+00-3.09115E-17-3.09115E-17-5.88212E-01-6.17125E-33-2.09967E-17
 -1        38-2.78577E-01-5.42039E+00-9.84193E-18 1.80599E+00 2.79389E-16-3.08662E-16
 -1        39 2.36126E-01-3.87628E+00-9.84193E-18 9.14494E-01 9.43788E-17 1.75494E-16
 -1        40 2.36126E-01-3.87628E+00-9.84193E-18 9.14494E-01-3.61643E-17 1.44951E-16
 -1        41-2.78577E-01-5.42039E+00-9.84193E-18 1.80599E+00 6.30807E-16-2.35880E-16
 -1        46 2.36508E+00-9.84161E-18-9.84161E-18-5.88212E-01 9.99511E-33-7.00254E-17
 -1        47 1.21515E-02-9.84161E-18-9.84161E-18-5.88212E-01-6.17130E-33-1.15120E-16
 -1        48 1.21515E-02-9.84161E-18-9.84161E-18-5.88212E-01-1.18022E-32-1.15280E-16
 -1        49 2.36508E+00-9.84161E-18-9.84161E-18-5.88212E-01 7.07478E-33-6.94263E-17
 -1        72 1.42891E-01-5.17480E+00-1.21238E-17-1.37009E+00-9.96103E-16-3.05576E-16
 -1        73 6.93618E-02-5.39538E+00-1.21238E-17-1.49744E+00 6.78381E-16 1.05605E-16
 -1        74 6.93618E-02-5.39538E+00-1.21238E-17-1.49744E+00-1.69091E-16 9.87453E-17
 -1        75 1.42891E-01-5.17480E+00-1.21238E-17-1.37009E+00-7.50165E-16-2.86097E-16
 -1        80-2.78577E-01-5.42039E+00-1.21242E-17 1.80599E+00-4.38718E-16 6.40464E-17
 -1        81 2.36126E-01-3.87628E+00-1.21242E-17 9.14494E-01-1.88523E-16 2.28093E-16
 -1        82 2.36126E-01-3.87628E+00-1.21242E-17 9.14494E-01-3.70729E-16 2.34172E-16
 -1        83-2.78577E-01-5.42039E+00-1.21242E-17 1.80599E+00-5.23130E-17 1.52064E-19
 -3
    1PSTEP                         3           1           1          
  100CL  101 1.000000000          24                     0    1           1
 -4  TOSTRAIN    6    1
 -5  EXX         1    4    1    1
 -5  EYY         1    4    2    2
 -5  EZZ         1    4    3    3
 -5  EXY         1    4    1    2
 -5  EYZ         1    4    2    3
 -5  EZX         1    4    3    1
 -1         4 6.80432E-07-2.46419E-05-1.47198E-22-6.52423E-06-8.07051E-22-8.26311E-22
 -1         5 3.30294E-07-2.56923E-05-1.47198E-22-7.13069E-06 3.53403E-22 1.07040E-21
 -1         6 3.30294E-07-2.56923E-05-1.47198E-22-7.13069E-06 2.79507E-21 1.08127E-21
 -1         7 6.80432E-07-2.46419E-05-1.47198E-22-6.52423E-06 2.39501E-22-8.49049E-22
 -1        12 1.12623E-05-1.47198E-22-1.47198E-22-2.80101E-06 1.50590E-38-9.85995E-23
 -1        13 5.78644E-08-1.47198E-22-1.47198E-22-2.80101E-06 1.33296E-38-3.13850E-22
 -1        14 5.78644E-08-1.47198E-22-1.47198E-22-2.80101E-06 1.70555E-38-3.13479E-22
 -1        15 1.12623E-05-1.47198E-22-1.47198E-22-2.80101E-06-2.93869E-38-9.99842E-23
 -1        38-1.32656E-06-2.58114E-05-4.68663E-23 8.59993E-06 1.33042E-21-1.46982E-21
 -1        39 1.12441E-06-1.84585E-05-4.68663E-23 4.35473E-06 4.49423E-22 8.35685E-22
 -1        40 1.12441E-06-1.84585E-05-4.68663E-23 4.35473E-06-1.72211E-22 6.90243E-22
 -1        41-1.32656E-06-2.58114E-05-4.68663E-23 8.59993E-06 3.00384E-21-1.12324E-21
 -1        46 1.12623E-05-4.68648E-23-4.68648E-23-2.80101E-06 4.75958E-38-3.33454E-22
 -1        47 5.78644E-08-4.68648E-23-4.68648E-23-2.80101E-06-2.93871E-38-5.48189E-22
 -1        48 5.78644E-08-4.68648E-23-4.68648E-23-2.80101E-06-5.62009E-38-5.48954E-22
 -1        49 1.12623E-05-4.68648E-23-4.68648E-23-2.80101E-06 3.36894E-38-3.30602E-22
 -1        72 6.80432E-07-2.46419E-05-5.77325E-23-6.52423E-06-4.74335E-21-1.45512E-21
 -1        73 3.30294E-07-2.56923E-05-5.77325E-23-7.13069E-06 3.23039E-21 5.02880E-22
 -1        74 3.30294E-07-2.56923E-05-5.77325E-23-7.13069E-06-8.05193E-22 4.70216E-22
 -1        75 6.80432E-07-2.46419E-05-5.77325E-23-6.52423E-06-3.57221E-21-1.36237E-21
 -1        80-1.32656E-06-2.58114E-05-5.77342E-23 8.59993E-06-2.08913E-21 3.04983E-22
 -1        81 1.12441E-06-1.84585E-05-5.77342E-23 4.35473E-06-8.97730E-22 1.08616E-21
 -1        82 1.12441E-06-1.84585E-05-5.77342E-23 4.35473E-06-1.76538E-21 1.11510E-21
 -1        83-1.32656E-06-2.58114E-05-5.77342E-23 8.59993E-06-2.49110E-22 7.24113E-25
 -3
    1PSTEP                         4           1           1          
  100CL  101 1.000000000          24                     0    1           1
 -4  ERROR       1    1
 -5  STR(%)      1    1    0    0
 -1         4 8.31067E-01
 -1         5 8.31067E-01
 -1         6 8.31067E-01
 -1         7 8.31067E-01
 -1        12 6.01757E+01
 -1        13 6.01757E+01
 -1        14 6.01757E+01
 -1        15 6.01757E+01
 -1        38 9.75824E+00
 -1        39 9.75824E+00
 -1        40 9.75824E+00
 -1        41 9.75824E+00
 -1        46 6.01757E+01
 -1        47 6.01757E+01
 -1        48 6.01757E+01
 -1        49 6.01757E+01
 -1        72 8.31067E-01
 -1        73 8.31067E-01
 -1        74 8.31067E-01
 -1        75 8.31067E-01
 -1        80 9.75824E+00
 -1        81 9.75824E+00
 -1        82 9.75824E+00
 -1        83 9.75824E+00
 -3
 9999
