    1C
    1UCantilever Beam - Fixed at one end, point load at free end        
    1USimple static analysis to verify FEA solver works                 
    1UUSER                                                              
    1UDATE              18.april.2026                                   
    1UTIME              13:59:16                                        
    1UHOST                                                              
    1UPGM               CalculiX                                        
    1UVERSION           Version 2.20                             
    1UCOMPILETIME       Sun Jul 31 18:08:37 CEST 2022                    
    1UDIR                                                               
    1UDBN                                                               
    1UMAT    1STEEL                                                     
    2C                            44                                     1
 -1         1 0.00000E+00 0.00000E+00 0.00000E+00
 -1         2 1.00000E+01 0.00000E+00 0.00000E+00
 -1         3 2.00000E+01 0.00000E+00 0.00000E+00
 -1         4 3.00000E+01 0.00000E+00 0.00000E+00
 -1         5 4.00000E+01 0.00000E+00 0.00000E+00
 -1         6 5.00000E+01 0.00000E+00 0.00000E+00
 -1         7 6.00000E+01 0.00000E+00 0.00000E+00
 -1         8 7.00000E+01 0.00000E+00 0.00000E+00
 -1         9 8.00000E+01 0.00000E+00 0.00000E+00
 -1        10 9.00000E+01 0.00000E+00 0.00000E+00
 -1        11 1.00000E+02 0.00000E+00 0.00000E+00
 -1        12 0.00000E+00 1.00000E+01 0.00000E+00
 -1        13 1.00000E+01 1.00000E+01 0.00000E+00
 -1        14 2.00000E+01 1.00000E+01 0.00000E+00
 -1        15 3.00000E+01 1.00000E+01 0.00000E+00
 -1        16 4.00000E+01 1.00000E+01 0.00000E+00
 -1        17 5.00000E+01 1.00000E+01 0.00000E+00
 -1        18 6.00000E+01 1.00000E+01 0.00000E+00
 -1        19 7.00000E+01 1.00000E+01 0.00000E+00
 -1        20 8.00000E+01 1.00000E+01 0.00000E+00
 -1        21 9.00000E+01 1.00000E+01 0.00000E+00
 -1        22 1.00000E+02 1.00000E+01 0.00000E+00
 -1        23 0.00000E+00 0.00000E+00 1.00000E+01
 -1        24 1.00000E+01 0.00000E+00 1.00000E+01
 -1        25 2.00000E+01 0.00000E+00 1.00000E+01
 -1        26 3.00000E+01 0.00000E+00 1.00000E+01
 -1        27 4.00000E+01 0.00000E+00 1.00000E+01
 -1        28 5.00000E+01 0.00000E+00 1.00000E+01
 -1        29 6.00000E+01 0.00000E+00 1.00000E+01
 -1        30 7.00000E+01 0.00000E+00 1.00000E+01
 -1        31 8.00000E+01 0.00000E+00 1.00000E+01
 -1        32 9.00000E+01 0.00000E+00 1.00000E+01
 -1        33 1.00000E+02 0.00000E+00 1.00000E+01
 -1        34 0.00000E+00 1.00000E+01 1.00000E+01
 -1        35 1.00000E+01 1.00000E+01 1.00000E+01
 -1        36 2.00000E+01 1.00000E+01 1.00000E+01
 -1        37 3.00000E+01 1.00000E+01 1.00000E+01
 -1        38 4.00000E+01 1.00000E+01 1.00000E+01
 -1        39 5.00000E+01 1.00000E+01 1.00000E+01
 -1        40 6.00000E+01 1.00000E+01 1.00000E+01
 -1        41 7.00000E+01 1.00000E+01 1.00000E+01
 -1        42 8.00000E+01 1.00000E+01 1.00000E+01
 -1        43 9.00000E+01 1.00000E+01 1.00000E+01
 -1        44 1.00000E+02 1.00000E+01 1.00000E+01
 -3
    3C                            10                                     1
 -1         1    1    0    1
 -2         1         2        13        12        23        24        35        34
 -1         2    1    0    1
 -2         2         3        14        13        24        25        36        35
 -1         3    1    0    1
 -2         3         4        15        14        25        26        37        36
 -1         4    1    0    1
 -2         4         5        16        15        26        27        38        37
 -1         5    1    0    1
 -2         5         6        17        16        27        28        39        38
 -1         6    1    0    1
 -2         6         7        18        17        28        29        40        39
 -1         7    1    0    1
 -2         7         8        19        18        29        30        41        40
 -1         8    1    0    1
 -2         8         9        20        19        30        31        42        41
 -1         9    1    0    1
 -2         9        10        21        20        31        32        43        42
 -1        10    1    0    1
 -2        10        11        22        21        32        33        44        43
 -3
    1PSTEP                         1           1           1          
  100CL  101 1.000000000          44                     0    1           1
 -4  DISP        4    1
 -5  D1          1    2    1    0
 -5  D2          1    2    2    0
 -5  D3          1    2    3    0
 -5  ALL         1    2    0    0    1ALL
 -1         1 0.00000E+00 0.00000E+00 0.00000E+00
 -1         2-1.03877E-02-1.08829E-02-1.69221E-03
 -1         3-2.01429E-02-4.19087E-02-1.35842E-03
 -1         4-2.87107E-02-9.12575E-02-1.20113E-03
 -1         5-3.61396E-02-1.56603E-01-1.02847E-03
 -1         6-4.24253E-02-2.35663E-01-8.57151E-04
 -1         7-4.75681E-02-3.26152E-01-6.85718E-04
 -1         8-5.15681E-02-4.25783E-01-5.14238E-04
 -1         9-5.44254E-02-5.32272E-01-3.43403E-04
 -1        10-5.61380E-02-6.43331E-01-1.65158E-04
 -1        11-5.67291E-02-7.56693E-01-7.19759E-05
 -1        12 0.00000E+00 0.00000E+00 0.00000E+00
 -1        13 1.03877E-02-1.08829E-02 1.69221E-03
 -1        14 2.01429E-02-4.19087E-02 1.35842E-03
 -1        15 2.87107E-02-9.12575E-02 1.20113E-03
 -1        16 3.61396E-02-1.56603E-01 1.02847E-03
 -1        17 4.24253E-02-2.35663E-01 8.57151E-04
 -1        18 4.75681E-02-3.26152E-01 6.85718E-04
 -1        19 5.15681E-02-4.25783E-01 5.14238E-04
 -1        20 5.44254E-02-5.32272E-01 3.43403E-04
 -1        21 5.61380E-02-6.43331E-01 1.65158E-04
 -1        22 5.67291E-02-7.56693E-01 7.19759E-05
 -1        23 0.00000E+00 0.00000E+00 0.00000E+00
 -1        24-1.03877E-02-1.08829E-02 1.69221E-03
 -1        25-2.01429E-02-4.19087E-02 1.35842E-03
 -1        26-2.87107E-02-9.12575E-02 1.20113E-03
 -1        27-3.61396E-02-1.56603E-01 1.02847E-03
 -1        28-4.24253E-02-2.35663E-01 8.57151E-04
 -1        29-4.75681E-02-3.26152E-01 6.85718E-04
 -1        30-5.15681E-02-4.25783E-01 5.14238E-04
 -1        31-5.44254E-02-5.32272E-01 3.43403E-04
 -1        32-5.61380E-02-6.43331E-01 1.65158E-04
 -1        33-5.67291E-02-7.56693E-01 7.19759E-05
 -1        34 0.00000E+00 0.00000E+00 0.00000E+00
 -1        35 1.03877E-02-1.08829E-02-1.69221E-03
 -1        36 2.01429E-02-4.19087E-02-1.35842E-03
 -1        37 2.87107E-02-9.12575E-02-1.20113E-03
 -1        38 3.61396E-02-1.56603E-01-1.02847E-03
 -1        39 4.24253E-02-2.35663E-01-8.57151E-04
 -1        40 4.75681E-02-3.26152E-01-6.85718E-04
 -1        41 5.15681E-02-4.25783E-01-5.14238E-04
 -1        42 5.44254E-02-5.32272E-01-3.43403E-04
 -1        43 5.61380E-02-6.43331E-01-1.65158E-04
 -1        44 5.67291E-02-7.56693E-01-7.19759E-05
 -3
    1PSTEP                         2           1           1          
  100CL  101 1.000000000          44                     0    1           1
 -4  STRESS      6    1
 -5  SXX         1    4    1    1
 -5  SYY         1    4    2    2
 -5  SZZ         1    4    3    3
 -5  SXY         1    4    1    2
 -5  SYZ         1    4    2    3
 -5  SZX         1    4    3    1
 -1         1-2.48500E+02-2.05015E+01-8.07002E+01-3.99984E+00-1.36677E+01-1.36677E+01
 -1         2-2.03726E+02 1.22727E+01 1.36363E+01-3.99984E+00 8.18183E+00-5.48584E+00
 -1         3-1.93068E+02-1.06923E+00-1.18803E+00-3.99984E+00-7.12821E-01 1.98317E+00
 -1         4-1.67906E+02 9.31539E-02 1.03503E-01-3.99984E+00 6.21026E-02 1.33245E+00
 -1         5-1.44007E+02-8.11323E-03-9.01463E-03-3.99984E+00-5.40882E-03 1.38914E+00
 -1         6-1.19999E+02 6.77383E-04 7.52642E-04-3.99984E+00 4.51589E-04 1.38418E+00
 -1         7-9.59991E+01 2.79149E-04 3.10163E-04-3.99984E+00 1.86099E-04 1.38482E+00
 -1         8-7.20035E+01-3.90580E-03-4.33974E-03-3.99984E+00-2.60386E-03 1.38240E+00
 -1         9-4.79548E+01 4.48922E-02 4.98799E-02-3.99984E+00 2.99282E-02 1.40973E+00
 -1        10-2.45151E+01-5.15283E-01-5.72532E-01-3.99984E+00-3.43522E-01 1.09614E+00
 -1        11-1.31288E+01-1.12892E+00-1.25435E+00-3.99984E+00-7.52613E-01 7.52613E-01
 -1        12 2.48500E+02 2.05015E+01 8.07002E+01-3.99984E+00-1.36677E+01 1.36677E+01
 -1        13 2.03726E+02-1.22727E+01-1.36363E+01-3.99984E+00 8.18183E+00 5.48584E+00
 -1        14 1.93068E+02 1.06923E+00 1.18803E+00-3.99984E+00-7.12821E-01-1.98317E+00
 -1        15 1.67906E+02-9.31539E-02-1.03503E-01-3.99984E+00 6.21026E-02-1.33245E+00
 -1        16 1.44007E+02 8.11323E-03 9.01463E-03-3.99984E+00-5.40882E-03-1.38914E+00
 -1        17 1.19999E+02-6.77383E-04-7.52642E-04-3.99984E+00 4.51589E-04-1.38418E+00
 -1        18 9.59991E+01-2.79149E-04-3.10163E-04-3.99984E+00 1.86099E-04-1.38482E+00
 -1        19 7.20035E+01 3.90580E-03 4.33974E-03-3.99984E+00-2.60386E-03-1.38240E+00
 -1        20 4.79548E+01-4.48922E-02-4.98799E-02-3.99984E+00 2.99282E-02-1.40973E+00
 -1        21 2.45151E+01 5.15283E-01 5.72532E-01-3.99984E+00-3.43522E-01-1.09614E+00
 -1        22 1.31288E+01 1.12892E+00 1.25435E+00-3.99984E+00-7.52613E-01-7.52613E-01
 -1        23-2.48500E+02-2.05015E+01-8.07002E+01-3.99984E+00 1.36677E+01 1.36677E+01
 -1        24-2.03726E+02 1.22727E+01 1.36363E+01-3.99984E+00-8.18183E+00 5.48584E+00
 -1        25-1.93068E+02-1.06923E+00-1.18803E+00-3.99984E+00 7.12821E-01-1.98317E+00
 -1        26-1.67906E+02 9.31539E-02 1.03503E-01-3.99984E+00-6.21026E-02-1.33245E+00
 -1        27-1.44007E+02-8.11323E-03-9.01463E-03-3.99984E+00 5.40882E-03-1.38914E+00
 -1        28-1.19999E+02 6.77383E-04 7.52642E-04-3.99984E+00-4.51589E-04-1.38418E+00
 -1        29-9.59991E+01 2.79149E-04 3.10163E-04-3.99984E+00-1.86099E-04-1.38482E+00
 -1        30-7.20035E+01-3.90580E-03-4.33974E-03-3.99984E+00 2.60386E-03-1.38240E+00
 -1        31-4.79548E+01 4.48922E-02 4.98799E-02-3.99984E+00-2.99282E-02-1.40973E+00
 -1        32-2.45151E+01-5.15283E-01-5.72532E-01-3.99984E+00 3.43522E-01-1.09614E+00
 -1        33-1.31288E+01-1.12892E+00-1.25435E+00-3.99984E+00 7.52613E-01-7.52613E-01
 -1        34 2.48500E+02 2.05015E+01 8.07002E+01-3.99984E+00 1.36677E+01-1.36677E+01
 -1        35 2.03726E+02-1.22727E+01-1.36363E+01-3.99984E+00-8.18183E+00-5.48584E+00
 -1        36 1.93068E+02 1.06923E+00 1.18803E+00-3.99984E+00 7.12821E-01 1.98317E+00
 -1        37 1.67906E+02-9.31539E-02-1.03503E-01-3.99984E+00-6.21026E-02 1.33245E+00
 -1        38 1.44007E+02 8.11323E-03 9.01463E-03-3.99984E+00 5.40882E-03 1.38914E+00
 -1        39 1.19999E+02-6.77383E-04-7.52642E-04-3.99984E+00-4.51589E-04 1.38418E+00
 -1        40 9.59991E+01-2.79149E-04-3.10163E-04-3.99984E+00-1.86099E-04 1.38482E+00
 -1        41 7.20035E+01 3.90580E-03 4.33974E-03-3.99984E+00 2.60386E-03 1.38240E+00
 -1        42 4.79548E+01-4.48922E-02-4.98799E-02-3.99984E+00-2.99282E-02 1.40973E+00
 -1        43 2.45151E+01 5.15283E-01 5.72532E-01-3.99984E+00 3.43522E-01 1.09614E+00
 -1        44 1.31288E+01 1.12892E+00 1.25435E+00-3.99984E+00 7.52613E-01 7.52613E-01
 -3
    1PSTEP                         3           1           1          
  100CL  101 1.000000000          44                     0    1           1
 -4  TOSTRAIN    6    1
 -5  EXX         1    4    1    1
 -5  EYY         1    4    2    2
 -5  EZZ         1    4    3    3
 -5  EXY         1    4    1    2
 -5  EYZ         1    4    2    3
 -5  EZX         1    4    3    1
 -1         1-1.03876E-03 3.72660E-04 1.20038E-09-2.47609E-05-8.46094E-05-8.46094E-05
 -1         2-1.00714E-03 3.29998E-04 3.38439E-04-2.47609E-05 5.06494E-05-3.39600E-05
 -1         3-9.16147E-04 2.72417E-04 2.71682E-04-2.47609E-05-4.41270E-06 1.22767E-05
 -1         4-7.99832E-04 2.40161E-04 2.40225E-04-2.47609E-05 3.84445E-07 8.24849E-06
 -1         5-6.85724E-04 2.05699E-04 2.05693E-04-2.47609E-05-3.34832E-08 8.59945E-06
 -1         6-5.71424E-04 1.71429E-04 1.71429E-04-2.47609E-05 2.79555E-09 8.56876E-06
 -1         7-4.57140E-04 1.37142E-04 1.37143E-04-2.47609E-05 1.15204E-09 8.57271E-06
 -1         8-3.42862E-04 1.02850E-04 1.02847E-04-2.47609E-05-1.61192E-08 8.55774E-06
 -1         9-2.28492E-04 6.86494E-05 6.86803E-05-2.47609E-05 1.85270E-07 8.72689E-06
 -1        10-1.15185E-04 3.33858E-05 3.30314E-05-2.47609E-05-2.12656E-06 6.78560E-06
 -1        11-5.91136E-05 1.51716E-05 1.43952E-05-2.47609E-05-4.65903E-06 4.65903E-06
 -1        12 1.03876E-03-3.72660E-04-1.20038E-09-2.47609E-05-8.46094E-05 8.46094E-05
 -1        13 1.00714E-03-3.29998E-04-3.38439E-04-2.47609E-05 5.06494E-05 3.39600E-05
 -1        14 9.16147E-04-2.72417E-04-2.71682E-04-2.47609E-05-4.41270E-06-1.22767E-05
 -1        15 7.99832E-04-2.40161E-04-2.40225E-04-2.47609E-05 3.84445E-07-8.24849E-06
 -1        16 6.85724E-04-2.05699E-04-2.05693E-04-2.47609E-05-3.34832E-08-8.59945E-06
 -1        17 5.71424E-04-1.71429E-04-1.71429E-04-2.47609E-05 2.79555E-09-8.56876E-06
 -1        18 4.57140E-04-1.37142E-04-1.37143E-04-2.47609E-05 1.15204E-09-8.57271E-06
 -1        19 3.42862E-04-1.02850E-04-1.02847E-04-2.47609E-05-1.61192E-08-8.55774E-06
 -1        20 2.28492E-04-6.86494E-05-6.86803E-05-2.47609E-05 1.85270E-07-8.72689E-06
 -1        21 1.15185E-04-3.33858E-05-3.30314E-05-2.47609E-05-2.12656E-06-6.78560E-06
 -1        22 5.91136E-05-1.51716E-05-1.43952E-05-2.47609E-05-4.65903E-06-4.65903E-06
 -1        23-1.03876E-03 3.72660E-04 1.20038E-09-2.47609E-05 8.46094E-05 8.46094E-05
 -1        24-1.00714E-03 3.29998E-04 3.38439E-04-2.47609E-05-5.06494E-05 3.39600E-05
 -1        25-9.16147E-04 2.72417E-04 2.71682E-04-2.47609E-05 4.41270E-06-1.22767E-05
 -1        26-7.99832E-04 2.40161E-04 2.40225E-04-2.47609E-05-3.84445E-07-8.24849E-06
 -1        27-6.85724E-04 2.05699E-04 2.05693E-04-2.47609E-05 3.34832E-08-8.59945E-06
 -1        28-5.71424E-04 1.71429E-04 1.71429E-04-2.47609E-05-2.79555E-09-8.56876E-06
 -1        29-4.57140E-04 1.37142E-04 1.37143E-04-2.47609E-05-1.15204E-09-8.57271E-06
 -1        30-3.42862E-04 1.02850E-04 1.02847E-04-2.47609E-05 1.61192E-08-8.55774E-06
 -1        31-2.28492E-04 6.86494E-05 6.86803E-05-2.47609E-05-1.85270E-07-8.72689E-06
 -1        32-1.15185E-04 3.33858E-05 3.30314E-05-2.47609E-05 2.12656E-06-6.78560E-06
 -1        33-5.91136E-05 1.51716E-05 1.43952E-05-2.47609E-05 4.65903E-06-4.65903E-06
 -1        34 1.03876E-03-3.72660E-04-1.20038E-09-2.47609E-05 8.46094E-05-8.46094E-05
 -1        35 1.00714E-03-3.29998E-04-3.38439E-04-2.47609E-05-5.06494E-05-3.39600E-05
 -1        36 9.16147E-04-2.72417E-04-2.71682E-04-2.47609E-05 4.41270E-06 1.22767E-05
 -1        37 7.99832E-04-2.40161E-04-2.40225E-04-2.47609E-05-3.84445E-07 8.24849E-06
 -1        38 6.85724E-04-2.05699E-04-2.05693E-04-2.47609E-05 3.34832E-08 8.59945E-06
 -1        39 5.71424E-04-1.71429E-04-1.71429E-04-2.47609E-05-2.79555E-09 8.56876E-06
 -1        40 4.57140E-04-1.37142E-04-1.37143E-04-2.47609E-05-1.15204E-09 8.57271E-06
 -1        41 3.42862E-04-1.02850E-04-1.02847E-04-2.47609E-05 1.61192E-08 8.55774E-06
 -1        42 2.28492E-04-6.86494E-05-6.86803E-05-2.47609E-05-1.85270E-07 8.72689E-06
 -1        43 1.15185E-04-3.33858E-05-3.30314E-05-2.47609E-05 2.12656E-06 6.78560E-06
 -1        44 5.91136E-05-1.51716E-05-1.43952E-05-2.47609E-05 4.65903E-06 4.65903E-06
 -3
    1PSTEP                         4           1           1          
  100CL  101 1.000000000          44                     0    1           1
 -4  ERROR       1    1
 -5  STR(%)      1    1    0    0
 -1         1 1.27577E+02
 -1         2 1.27577E+02
 -1         3 1.21992E+02
 -1         4 1.22027E+02
 -1         5 1.22060E+02
 -1         6 1.22084E+02
 -1         7 1.22084E+02
 -1         8 1.22049E+02
 -1         9 1.21766E+02
 -1        10 1.20348E+02
 -1        11 9.82885E+01
 -1        12 1.27577E+02
 -1        13 1.27577E+02
 -1        14 1.21992E+02
 -1        15 1.22027E+02
 -1        16 1.22060E+02
 -1        17 1.22084E+02
 -1        18 1.22084E+02
 -1        19 1.22049E+02
 -1        20 1.21766E+02
 -1        21 1.20348E+02
 -1        22 9.82885E+01
 -1        23 1.27577E+02
 -1        24 1.27577E+02
 -1        25 1.21992E+02
 -1        26 1.22027E+02
 -1        27 1.22060E+02
 -1        28 1.22084E+02
 -1        29 1.22084E+02
 -1        30 1.22049E+02
 -1        31 1.21766E+02
 -1        32 1.20348E+02
 -1        33 9.82885E+01
 -1        34 1.27577E+02
 -1        35 1.27577E+02
 -1        36 1.21992E+02
 -1        37 1.22027E+02
 -1        38 1.22060E+02
 -1        39 1.22084E+02
 -1        40 1.22084E+02
 -1        41 1.22049E+02
 -1        42 1.21766E+02
 -1        43 1.20348E+02
 -1        44 9.82885E+01
 -3
 9999
